
  ___ ___ ___ _ _ _  
 |   |   |_  | | | | 
 | | | | | . | | | | 
 |__ |  _|___|_____|  21.6.0
 |___|_|             

User:   namirinz@Archintosh
Date:   Mon Oct  4 12:46:18 2021
Arch:   x86_64
Pid:    13944
Python: 3.9.7
gpaw:   /home/namirinz/miniconda3/envs/tmlcc/lib/python3.9/site-packages/gpaw
_gpaw:  /home/namirinz/miniconda3/envs/tmlcc/lib/python3.9/site-packages/
        _gpaw.cpython-39-x86_64-linux-gnu.so
ase:    /home/namirinz/miniconda3/envs/tmlcc/lib/python3.9/site-packages/ase (version 3.22.0)
numpy:  /home/namirinz/miniconda3/envs/tmlcc/lib/python3.9/site-packages/numpy (version 1.21.2)
scipy:  /home/namirinz/miniconda3/envs/tmlcc/lib/python3.9/site-packages/scipy (version 1.7.1)
libxc:  5.1.5
units:  Angstrom and eV
cores: 1
OpenMP: False
OMP_NUM_THREADS: 1

Input parameters:
  basis: dzp
  mode: lcao

System changes: positions, numbers, cell, pbc, initial_charges, initial_magmoms 

Initialize ...

O-setup:
  name: Oxygen
  id: 9b9d51c344dea68c822856295a461509
  Z: 8.0
  valence: 6
  core: 2
  charge: 0.0
  file: /home/namirinz/gpaw-setups-0.9.20000/O.LDA.gz
  compensation charges: gauss, rc=0.21, lmax=2
  cutoffs: 1.17(filt), 0.83(core),
  valence states:
                energy  radius
    2s(2.00)   -23.752   0.688
    2p(4.00)    -9.195   0.598
    *s           3.459   0.688
    *p          18.016   0.598
    *d           0.000   0.619

  LCAO basis set for O:
    Name: dzp
    File: /home/namirinz/gpaw-setups-0.9.20000/O.dzp.basis.gz
    Number of radial functions: 5
    Number of spherical harmonics: 13
      l=0, rc=4.3438 Bohr: 2s-sz confined orbital
      l=1, rc=5.3906 Bohr: 2p-sz confined orbital
      l=0, rc=2.2969 Bohr: 2s-dz split-valence wave
      l=1, rc=2.8906 Bohr: 2p-dz split-valence wave
      l=2, rc=5.3906 Bohr: d-type Gaussian polarization

C-setup:
  name: Carbon
  id: d60576a1f549371a163e72552ca58787
  Z: 6.0
  valence: 4
  core: 2
  charge: 0.0
  file: /home/namirinz/gpaw-setups-0.9.20000/C.LDA.gz
  compensation charges: gauss, rc=0.20, lmax=2
  cutoffs: 1.14(filt), 1.14(core),
  valence states:
                energy  radius
    2s(2.00)   -13.639   0.635
    2p(2.00)    -5.414   0.635
    *s          13.573   0.635
    *p          21.797   0.635
    *d           0.000   0.635

  LCAO basis set for C:
    Name: dzp
    File: /home/namirinz/gpaw-setups-0.9.20000/C.dzp.basis.gz
    Number of radial functions: 5
    Number of spherical harmonics: 13
      l=0, rc=5.5469 Bohr: 2s-sz confined orbital
      l=1, rc=6.6719 Bohr: 2p-sz confined orbital
      l=0, rc=3.0312 Bohr: 2s-dz split-valence wave
      l=1, rc=3.7500 Bohr: 2p-dz split-valence wave
      l=2, rc=6.6719 Bohr: d-type Gaussian polarization

Zn-setup:
  name: Zinc
  id: 5ebf863f442df07f995a1d0f0e5f6815
  Z: 30.0
  valence: 12
  core: 18
  charge: 0.0
  file: /home/namirinz/gpaw-setups-0.9.20000/Zn.LDA.gz
  compensation charges: gauss, rc=0.37, lmax=2
  cutoffs: 2.14(filt), 2.28(core),
  valence states:
                energy  radius
    4s(2.00)    -6.218   1.286
    4p(0.00)    -1.230   1.270
    3d(10.00)   -10.426   1.180
    *s          20.994   1.286
    *p          25.981   1.270
    *d          16.786   1.180

  LCAO basis set for Zn:
    Name: dzp
    File: /home/namirinz/gpaw-setups-0.9.20000/Zn.dzp.basis.gz
    Number of radial functions: 7
    Number of spherical harmonics: 21
      l=0, rc=8.1562 Bohr: 4s-sz confined orbital
      l=1, rc=12.4062 Bohr: 4p-sz confined orbital
      l=2, rc=4.3594 Bohr: 3d-sz confined orbital
      l=0, rc=4.7188 Bohr: 4s-dz split-valence wave
      l=1, rc=7.4844 Bohr: 4p-dz split-valence wave
      l=2, rc=2.8125 Bohr: 3d-dz split-valence wave
      l=1, rc=8.1562 Bohr: p-type Gaussian polarization

H-setup:
  name: Hydrogen
  id: 4766778ce56282eaa64abeb28b7c1de3
  Z: 1.0
  valence: 1
  core: 0
  charge: 0.0
  file: /home/namirinz/gpaw-setups-0.9.20000/H.LDA.gz
  compensation charges: gauss, rc=0.15, lmax=2
  cutoffs: 0.85(filt), 0.53(core),
  valence states:
                energy  radius
    1s(1.00)    -6.353   0.476
    *s          20.858   0.476
    *p           0.000   0.476

  LCAO basis set for H:
    Name: dzp
    File: /home/namirinz/gpaw-setups-0.9.20000/H.dzp.basis.gz
    Number of radial functions: 3
    Number of spherical harmonics: 5
      l=0, rc=6.4219 Bohr: 1s-sz confined orbital
      l=0, rc=3.6094 Bohr: 1s-dz split-valence wave
      l=1, rc=6.4219 Bohr: p-type Gaussian polarization

N-setup:
  name: Nitrogen
  id: c467cdfa1b75f62c8f7a0469921b1cfb
  Z: 7.0
  valence: 5
  core: 2
  charge: 0.0
  file: /home/namirinz/gpaw-setups-0.9.20000/N.LDA.gz
  compensation charges: gauss, rc=0.18, lmax=2
  cutoffs: 1.11(filt), 0.96(core),
  valence states:
                energy  radius
    2s(2.00)   -18.420   0.603
    2p(3.00)    -7.237   0.529
    *s           8.791   0.603
    *p          19.974   0.529
    *d           0.000   0.577

  LCAO basis set for N:
    Name: dzp
    File: /home/namirinz/gpaw-setups-0.9.20000/N.dzp.basis.gz
    Number of radial functions: 5
    Number of spherical harmonics: 13
      l=0, rc=4.8594 Bohr: 2s-sz confined orbital
      l=1, rc=6.0625 Bohr: 2p-sz confined orbital
      l=0, rc=2.6094 Bohr: 2s-dz split-valence wave
      l=1, rc=3.2656 Bohr: 2p-dz split-valence wave
      l=2, rc=6.0625 Bohr: d-type Gaussian polarization

Reference energy: -173910.277030

Spin-paired calculation

Convergence criteria:
  Maximum total energy change: 0.0005 eV / electron
  Maximum integral of absolute density change: 0.0001 electrons
  Maximum integral of absolute eigenstate change: 4e-08 eV^2
  Maximum number of iterations: 333

Symmetries present (total): 1

  ( 1  0  0)
  ( 0  1  0)
  ( 0  0  1)

1 k-point (Gamma)
1 k-point in the irreducible part of the Brillouin zone
       k-points in crystal coordinates                weights
   0:     0.00000000    0.00000000    0.00000000          1/1

Wave functions: LCAO
  Diagonalizer: Serial LAPACK
  Atomic Correction: dense with blas
  Datatype: float
 

Occupation numbers: Fermi-Dirac: width=0.1000 eV
 

Eigensolver
   LCAO using direct dense diagonalizer 

Densities:
  Coarse grid: 52*52*48 grid
  Fine grid: 104*104*96 grid
  Total Charge: 0.000000 

Density mixing:
  Method: separate
  Backend: pulay
  Linear mixing parameter: 0.05
  Mixing with 5 old densities
  Damping of long wave oscillations: 50 

Hamiltonian:
  XC and Coulomb potentials evaluated on a 104*104*96 grid
  Using the LDA Exchange-Correlation functional
  Interpolation: tri-quintic (5. degree polynomial)
  Poisson solver: FastPoissonSolver using
    Stencil: 12*3+1=37 point O(h^6) finite-difference Laplacian
    FFT axes: [0, 1, 2]
    FST axes: []
 

Memory estimate:
  Process memory now: 237.51 MiB
  Calculator: 200.93 MiB
    Density: 81.69 MiB
      Arrays: 25.75 MiB
      Localized functions: 46.04 MiB
      Mixer: 9.90 MiB
    Hamiltonian: 20.17 MiB
      Arrays: 16.83 MiB
      XC: 0.00 MiB
      Poisson: 0.00 MiB
      vbar: 3.34 MiB
    Wavefunctions: 99.07 MiB
      C [qnM]: 1.17 MiB
      S, T [2 x qmm]: 10.54 MiB
      P [aqMi]: 0.65 MiB
      BasisFunctions: 86.71 MiB
      Eigensolver: 0.00 MiB

Total number of cores used: 1

Number of atoms: 75
Number of atomic orbitals: 831
Number of bands in calculation: 184
Number of valence electrons: 300
Bands to converge: occupied

... initialized

Initializing position-dependent things.

Density initialized from atomic densities
                                                
                                                
                                                
                                                
                              O                 
                            C H                 
                    C  H C  O                   
           O  CHC      N C H                    
                H                               
                        O C                     
               O  O  H Zn  O      H             
           HH   C   C O      C   C              
            HC OC H     O   C      C            
             COHC O  CCZnO  O O  H              
                 H    C              H          
                         H                      
            HO H    C CN   OH                   
                CC      C C                     
                 O    O                         
                        H                       
                                                
                                                
                                                
                                                

Positions:
   0 O      5.157920    3.381303    6.078359    ( 0.0000,  0.0000,  0.0000)
   1 O      5.206890    3.377417    3.810531    ( 0.0000,  0.0000,  0.0000)
   2 C      5.304298    2.781643    4.943446    ( 0.0000,  0.0000,  0.0000)
   3 O      3.229263    5.331505    6.077864    ( 0.0000,  0.0000,  0.0000)
   4 O      3.278340    5.327513    3.810037    ( 0.0000,  0.0000,  0.0000)
   5 C      2.650588    5.347684    4.927823    ( 0.0000,  0.0000,  0.0000)
   6 Zn     5.140655    5.332103    6.458473    ( 0.0000,  0.0000,  0.0000)
   7 Zn     5.206121    5.326915    3.430022    ( 0.0000,  0.0000,  0.0000)
   8 O      5.139885    7.281601    6.077963    ( 0.0000,  0.0000,  0.0000)
   9 O      5.188856    7.277715    3.810136    ( 0.0000,  0.0000,  0.0000)
  10 O      7.068436    5.331506    6.078458    ( 0.0000,  0.0000,  0.0000)
  11 O      7.117513    5.327513    3.810630    ( 0.0000,  0.0000,  0.0000)
  12 C      5.273939    7.883178    4.939639    ( 0.0000,  0.0000,  0.0000)
  13 C      7.692738    5.423325    4.960613    ( 0.0000,  0.0000,  0.0000)
  14 C      9.763091    6.070556    3.926345    ( 0.0000,  0.0000,  0.0000)
  15 C      9.073181    5.762983    5.023978    ( 0.0000,  0.0000,  0.0000)
  16 H      9.283245    6.135708    2.954049    ( 0.0000,  0.0000,  0.0000)
  17 H      9.526715    5.802853    6.011305    ( 0.0000,  0.0000,  0.0000)
  18 C      0.606178    6.216148    4.020998    ( 0.0000,  0.0000,  0.0000)
  19 C      1.236260    5.388040    4.871320    ( 0.0000,  0.0000,  0.0000)
  20 H      0.719015    4.682805    5.514922    ( 0.0000,  0.0000,  0.0000)
  21 C      5.618367    0.669042    6.107115    ( 0.0000,  0.0000,  0.0000)
  22 C      5.665954    1.397964    4.932440    ( 0.0000,  0.0000,  0.0000)
  23 C      6.080466    0.730820    3.747562    ( 0.0000,  0.0000,  0.0000)
  24 C      5.967203    9.967072    3.720388    ( 0.0000,  0.0000,  0.0000)
  25 C      5.636093    9.273037    4.921266    ( 0.0000,  0.0000,  0.0000)
  26 C      5.711524    9.972842    6.116855    ( 0.0000,  0.0000,  0.0000)
  27 C      5.169244    9.848700    7.506910    ( 0.0000,  0.0000,  0.0000)
  28 C      5.000606    0.733616    7.467742    ( 0.0000,  0.0000,  0.0000)
  29 H      4.238193    9.242183    7.568328    ( 0.0000,  0.0000,  0.0000)
  30 H      5.608810    1.344556    8.167798    ( 0.0000,  0.0000,  0.0000)
  31 C      4.164759    5.718386    0.678380    ( 0.0000,  0.0000,  0.0000)
  32 N      5.241224    5.314801    1.412077    ( 0.0000,  0.0000,  0.0000)
  33 C      6.388135    4.999114    0.734112    ( 0.0000,  0.0000,  0.0000)
  34 H      7.277465    4.723576    1.282647    ( 0.0000,  0.0000,  0.0000)
  35 C      6.201558    5.002470    9.202530    ( 0.0000,  0.0000,  0.0000)
  36 H      7.109851    4.716079    8.690741    ( 0.0000,  0.0000,  0.0000)
  37 N      5.088031    5.326336    8.475923    ( 0.0000,  0.0000,  0.0000)
  38 C      3.987308    5.756363    9.159030    ( 0.0000,  0.0000,  0.0000)
  39 C      2.606963    5.186275    9.049209    ( 0.0000,  0.0000,  0.0000)
  40 C      2.788696    5.120939    0.686627    ( 0.0000,  0.0000,  0.0000)
  41 H      2.592877    4.195559    8.540980    ( 0.0000,  0.0000,  0.0000)
  42 H      2.041703    5.805121    1.139609    ( 0.0000,  0.0000,  0.0000)
  43 C      1.603809    6.157447    8.479355    ( 0.0000,  0.0000,  0.0000)
  44 O      0.417986    5.861004    8.478643    ( 0.0000,  0.0000,  0.0000)
  45 O      2.021484    7.382846    7.948550    ( 0.0000,  0.0000,  0.0000)
  46 H      1.250066    7.933932    7.589350    ( 0.0000,  0.0000,  0.0000)
  47 C      2.716195    3.719987    1.245031    ( 0.0000,  0.0000,  0.0000)
  48 O      3.539285    2.876224    0.919037    ( 0.0000,  0.0000,  0.0000)
  49 O      1.691782    3.392283    2.136656    ( 0.0000,  0.0000,  0.0000)
  50 H      1.745698    2.430644    2.453622    ( 0.0000,  0.0000,  0.0000)
  51 O      1.356720    7.071541    3.208381    ( 0.0000,  0.0000,  0.0000)
  52 C      0.595977    8.136537    2.680029    ( 0.0000,  0.0000,  0.0000)
  53 H      0.012162    8.650775    3.478258    ( 0.0000,  0.0000,  0.0000)
  54 H     10.524061    7.767370    1.882671    ( 0.0000,  0.0000,  0.0000)
  55 C      1.541807    9.150907    2.054008    ( 0.0000,  0.0000,  0.0000)
  56 H      0.961094   10.001677    1.638296    ( 0.0000,  0.0000,  0.0000)
  57 H      2.248395    9.536565    2.820209    ( 0.0000,  0.0000,  0.0000)
  58 H      2.120702    8.674556    1.233481    ( 0.0000,  0.0000,  0.0000)
  59 C      6.591088    1.474975    2.567291    ( 0.0000,  0.0000,  0.0000)
  60 O      7.521884    2.256642    2.702417    ( 0.0000,  0.0000,  0.0000)
  61 O      6.000062    1.298208    1.314636    ( 0.0000,  0.0000,  0.0000)
  62 H      6.419208    1.888454    0.605225    ( 0.0000,  0.0000,  0.0000)
  63 C      6.199181    9.256563    2.445405    ( 0.0000,  0.0000,  0.0000)
  64 O      7.314096    8.835516    2.173649    ( 0.0000,  0.0000,  0.0000)
  65 O      5.119701    9.025987    1.588616    ( 0.0000,  0.0000,  0.0000)
  66 H      5.359442    8.414363    0.819054    ( 0.0000,  0.0000,  0.0000)
  67 C      6.264019    9.372861    8.432622    ( 0.0000,  0.0000,  0.0000)
  68 O      6.802466   10.139722    9.217600    ( 0.0000,  0.0000,  0.0000)
  69 O      6.676115    8.040021    8.371234    ( 0.0000,  0.0000,  0.0000)
  70 H      7.416862    7.830542    9.031192    ( 0.0000,  0.0000,  0.0000)
  71 C      3.534045    1.093067    7.480992    ( 0.0000,  0.0000,  0.0000)
  72 O      2.922916    1.056446    8.538458    ( 0.0000,  0.0000,  0.0000)
  73 O      2.870093    1.448759    6.302195    ( 0.0000,  0.0000,  0.0000)
  74 H      1.893466    1.671974    6.457662    ( 0.0000,  0.0000,  0.0000)

Unit cell:
           periodic     x           y           z      points  spacing
  1. axis:    yes   10.609882    0.000000    0.000000    52     0.2040
  2. axis:    yes   -0.048658   10.643467    0.000000    52     0.2047
  3. axis:    yes   -0.214448    0.015552    9.888495    48     0.2060

  Lengths:  10.609882  10.643578   9.890832
  Angles:   89.904234  91.242355  90.261935

Effective grid spacing dv^(1/3) = 0.2049

                     log10-error:    total        iterations:
           time      wfs    density  energy       poisson
iter:   1  12:46:26                -538.196386    1      
iter:   2  12:46:28         -0.92  -534.555324    1      
iter:   3  12:46:30         -0.96  -523.458974    1      
iter:   4  12:46:33         -1.26  -523.636563    1      
iter:   5  12:46:35         -1.44  -522.416486    1      
iter:   6  12:46:37         -1.73  -521.696447    1      
iter:   7  12:46:39         -1.98  -521.601083    1      
iter:   8  12:46:42         -2.29  -521.557961    1      
iter:   9  12:46:44         -2.49  -521.543109    1      
iter:  10  12:46:46         -2.75  -521.538880    1      
iter:  11  12:46:49         -2.84  -521.537975    1      
iter:  12  12:46:51         -2.90  -521.538408    1      
iter:  13  12:46:53         -2.97  -521.535626    1      
iter:  14  12:46:55         -3.46  -521.535560    1      
iter:  15  12:46:58         -3.51  -521.535577    1      
iter:  16  12:47:00         -3.77  -521.535506    1      
iter:  17  12:47:02         -3.88  -521.535455    1      
iter:  18  12:47:05         -3.91  -521.535365    1      
iter:  19  12:47:07         -4.04  -521.535390    1      

Converged after 19 iterations.

Dipole moment: (-9.899709, 11.680701, 4.419386) |e|*Ang

Energy contributions relative to reference atoms: (reference = -173910.277030)

Kinetic:       +390.746732
Potential:     -407.759266
External:        +0.000000
XC:            -517.839220
Entropy (-ST):   -0.039721
Local:          +13.336223
--------------------------
Free energy:   -521.555251
Extrapolated:  -521.535390

 Band  Eigenvalues  Occupancy
    0    -23.19303    2.00000
    1    -23.00690    2.00000
    2    -22.86790    2.00000
    3    -22.83858    2.00000
    4    -22.58359    2.00000
    5    -22.40630    2.00000
    6    -22.34422    2.00000
    7    -22.03706    2.00000
    8    -21.84602    2.00000
    9    -21.81659    2.00000
   10    -21.68736    2.00000
   11    -21.52630    2.00000
   12    -21.02334    2.00000
   13    -20.81382    2.00000
   14    -20.68816    2.00000
   15    -20.65093    2.00000
   16    -20.40996    2.00000
   17    -20.23143    2.00000
   18    -19.75428    2.00000
   19    -19.54927    2.00000
   20    -19.52212    2.00000
   21    -19.48007    2.00000
   22    -19.37691    2.00000
   23    -18.91920    2.00000
   24    -18.67235    2.00000
   25    -17.04684    2.00000
   26    -16.32641    2.00000
   27    -15.37998    2.00000
   28    -15.14397    2.00000
   29    -14.88789    2.00000
   30    -14.43062    2.00000
   31    -14.26870    2.00000
   32    -13.96533    2.00000
   33    -13.63934    2.00000
   34    -13.24145    2.00000
   35    -12.76796    2.00000
   36    -12.64964    2.00000
   37    -12.39069    2.00000
   38    -12.30717    2.00000
   39    -11.54141    2.00000
   40    -11.29236    2.00000
   41    -11.13114    2.00000
   42    -10.99833    2.00000
   43    -10.71752    2.00000
   44    -10.63668    2.00000
   45    -10.15276    2.00000
   46     -9.97703    2.00000
   47     -9.92392    2.00000
   48     -9.84562    2.00000
   49     -9.71755    2.00000
   50     -9.56383    2.00000
   51     -9.56039    2.00000
   52     -9.45810    2.00000
   53     -9.03008    2.00000
   54     -8.91293    2.00000
   55     -8.70177    2.00000
   56     -8.59204    2.00000
   57     -8.52300    2.00000
   58     -8.25302    2.00000
   59     -7.98969    2.00000
   60     -7.91973    2.00000
   61     -7.88790    2.00000
   62     -7.82173    2.00000
   63     -7.68953    2.00000
   64     -7.64413    2.00000
   65     -7.56087    2.00000
   66     -7.48449    2.00000
   67     -7.39991    2.00000
   68     -7.34896    2.00000
   69     -7.30100    2.00000
   70     -7.24527    2.00000
   71     -7.21740    2.00000
   72     -7.17321    2.00000
   73     -7.11661    2.00000
   74     -7.10499    2.00000
   75     -7.04402    2.00000
   76     -6.89829    2.00000
   77     -6.89091    2.00000
   78     -6.85185    2.00000
   79     -6.72799    2.00000
   80     -6.66846    2.00000
   81     -6.55706    2.00000
   82     -6.52643    2.00000
   83     -6.45854    2.00000
   84     -6.40137    2.00000
   85     -6.29644    2.00000
   86     -6.20312    2.00000
   87     -6.17544    2.00000
   88     -5.98269    2.00000
   89     -5.90735    2.00000
   90     -5.85821    2.00000
   91     -5.82648    2.00000
   92     -5.78866    2.00000
   93     -5.71874    2.00000
   94     -5.67624    2.00000
   95     -5.64172    2.00000
   96     -5.58498    2.00000
   97     -5.56407    2.00000
   98     -5.52595    2.00000
   99     -5.50407    2.00000
  100     -5.39743    2.00000
  101     -5.28713    2.00000
  102     -5.24331    2.00000
  103     -5.15150    2.00000
  104     -5.11636    2.00000
  105     -5.05385    2.00000
  106     -4.98903    2.00000
  107     -4.94607    2.00000
  108     -4.89934    2.00000
  109     -4.80661    2.00000
  110     -4.71322    2.00000
  111     -4.69097    2.00000
  112     -4.66711    2.00000
  113     -4.60581    2.00000
  114     -4.52102    2.00000
  115     -4.24061    2.00000
  116     -4.12605    2.00000
  117     -3.91925    2.00000
  118     -3.85480    2.00000
  119     -3.82774    2.00000
  120     -3.68031    2.00000
  121     -3.64932    2.00000
  122     -3.54530    2.00000
  123     -3.51071    2.00000
  124     -3.37467    2.00000
  125     -3.23200    2.00000
  126     -3.06380    2.00000
  127     -2.88996    2.00000
  128     -2.84830    2.00000
  129     -2.80821    2.00000
  130     -2.76892    2.00000
  131     -2.68585    2.00000
  132     -2.59515    2.00000
  133     -2.50742    2.00000
  134     -2.42639    2.00000
  135     -2.37955    2.00000
  136     -2.28973    2.00000
  137     -2.23954    2.00000
  138     -2.21042    2.00000
  139     -2.18628    2.00000
  140     -2.10124    2.00000
  141     -2.01079    2.00000
  142     -1.85608    2.00000
  143     -1.75728    1.99999
  144     -1.71687    1.99998
  145     -1.66344    1.99997
  146     -1.55177    1.99992
  147     -1.32854    1.99923
  148     -1.02965    1.98489
  149     -0.99704    1.97913
  150     -0.14436    0.03688
  151      0.69455    0.00001
  152      1.18017    0.00000
  153      1.56471    0.00000
  154      2.14284    0.00000
  155      2.19327    0.00000
  156      2.63261    0.00000
  157      2.83596    0.00000
  158      2.90726    0.00000
  159      3.00180    0.00000
  160      3.18227    0.00000
  161      3.44467    0.00000
  162      3.66689    0.00000
  163      3.75962    0.00000
  164      3.80869    0.00000
  165      4.02115    0.00000
  166      4.26492    0.00000
  167      4.68590    0.00000
  168      4.82413    0.00000
  169      4.92743    0.00000
  170      5.03485    0.00000
  171      5.20029    0.00000
  172      5.46475    0.00000
  173      5.48626    0.00000
  174      5.63804    0.00000
  175      5.79327    0.00000
  176      5.98564    0.00000
  177      6.12710    0.00000
  178      6.18583    0.00000
  179      6.26738    0.00000
  180      6.56161    0.00000
  181      6.60532    0.00000
  182      6.64971    0.00000
  183      6.70008    0.00000

Fermi level: -0.54183

Gap: 0.853 eV
Transition (v -> c):
  (s=0, k=0, n=149, [0.00, 0.00, 0.00]) -> (s=0, k=0, n=150, [0.00, 0.00, 0.00])
